{
  "license_title": "Other License Specified",
  "maintainer": "Peter Linstrom",
  "relationships_as_object": [

  ],
  "private": false,
  "maintainer_email": "peter.linstrom@nist.gov",
  "num_tags": 18,
  "id": "695c1d62-ed85-4ec7-a577-7a738e115bf4",
  "metadata_created": "2016-01-29T13:51:50.074617",
  "metadata_modified": "2016-10-07T22:14:18.102268",
  "author": null,
  "author_email": null,
  "state": "active",
  "version": null,
  "creator_user_id": "47303a9e-1187-4290-85a3-1fc02dc49e4a",
  "type": "dataset",
  "resources": [
    {
      "cache_last_updated": null,
      "package_id": "695c1d62-ed85-4ec7-a577-7a738e115bf4",
      "webstore_last_updated": null,
      "id": "231b6e58-46e2-42a0-8147-b8bc211b46a2",
      "size": null,
      "state": "active",
      "hash": "",
      "description": "Landing page for the NIST Chemistry WebBook.",
      "format": "HTML",
      "tracking_summary": {
        "total": 9,
        "recent": 3
      },
      "last_modified": null,
      "url_type": null,
      "no_real_name": "True",
      "mimetype": "text/html",
      "cache_url": null,
      "name": "Web Page",
      "created": "2016-02-26T09:15:41.548274",
      "url": "http://webbook.nist.gov/chemistry/",
      "webstore_url": null,
      "mimetype_inner": null,
      "position": 0,
      "revision_id": "e73c26df-3b51-4e99-b10f-91df040b9d6d",
      "resource_type": null
    }
  ],
  "num_resources": 1,
  "tags": [
    {
      "vocabulary_id": null,
      "state": "active",
      "display_name": "boiling-point",
      "id": "1cc3a4f7-ff2a-44bc-8f04-6fb9498f41f0",
      "name": "boiling-point"
    },
    {
      "vocabulary_id": null,
      "state": "active",
      "display_name": "chemical-data",
      "id": "8b0ec2a1-b474-4b4c-8736-f42d7e06813d",
      "name": "chemical-data"
    },
    {
      "vocabulary_id": null,
      "state": "active",
      "display_name": "chemical-structure",
      "id": "85ab4c0f-d868-4203-b37e-8ed8580cce8d",
      "name": "chemical-structure"
    },
    {
      "vocabulary_id": null,
      "state": "active",
      "display_name": "enthalpy",
      "id": "e47f8394-8dac-4275-a1de-3213052f1ac8",
      "name": "enthalpy"
    },
    {
      "vocabulary_id": null,
      "state": "active",
      "display_name": "entropy",
      "id": "37ff9a6d-e7ae-4188-a85b-5969551bd826",
      "name": "entropy"
    },
    {
      "vocabulary_id": null,
      "state": "active",
      "display_name": "heat-capacity",
      "id": "36003dc2-1928-4922-a7a4-369d1c5cdbd6",
      "name": "heat-capacity"
    },
    {
      "vocabulary_id": null,
      "state": "active",
      "display_name": "heat-of-formation",
      "id": "0fe666da-6109-4b53-9007-869a6fbe7d0d",
      "name": "heat-of-formation"
    },
    {
      "vocabulary_id": null,
      "state": "active",
      "display_name": "inchi",
      "id": "17c0ecb7-6675-41ac-b7c2-34d4531c40b6",
      "name": "inchi"
    },
    {
      "vocabulary_id": null,
      "state": "active",
      "display_name": "inchikey",
      "id": "9ee8b8f8-38d8-4957-ba1c-690c8d2f1a71",
      "name": "inchikey"
    },
    {
      "vocabulary_id": null,
      "state": "active",
      "display_name": "ionization-potential",
      "id": "0dcae445-bff1-4a91-82e7-a5e555872c0e",
      "name": "ionization-potential"
    },
    {
      "vocabulary_id": null,
      "state": "active",
      "display_name": "ir-spectrum",
      "id": "fc27215a-8f66-4bf2-a942-caf157d8a4ed",
      "name": "ir-spectrum"
    },
    {
      "vocabulary_id": null,
      "state": "active",
      "display_name": "mass-spectrum",
      "id": "4750fa9b-ba9d-4586-b9ab-a8150e98c501",
      "name": "mass-spectrum"
    },
    {
      "vocabulary_id": null,
      "state": "active",
      "display_name": "retention-index",
      "id": "18be3828-47f1-4220-a49f-e667c1b073bb",
      "name": "retention-index"
    },
    {
      "vocabulary_id": null,
      "state": "active",
      "display_name": "thermochemical-data",
      "id": "3d3a338b-b981-4195-8cfb-9dd4a764cf68",
      "name": "thermochemical-data"
    },
    {
      "vocabulary_id": null,
      "state": "active",
      "display_name": "thermochemistry",
      "id": "b0a915d3-b9c4-438d-a615-8624e4492f83",
      "name": "thermochemistry"
    },
    {
      "vocabulary_id": null,
      "state": "active",
      "display_name": "thermodynamic-data",
      "id": "596ec67a-873c-4e00-b99d-66efdbb9a013",
      "name": "thermodynamic-data"
    },
    {
      "vocabulary_id": null,
      "state": "active",
      "display_name": "uv-vis-spectrum",
      "id": "eb9c3cb1-b64c-46b9-b0c8-aebce27123c0",
      "name": "uv-vis-spectrum"
    },
    {
      "vocabulary_id": null,
      "state": "active",
      "display_name": "vapor-pressure",
      "id": "7aa1d4a1-4ad8-41d6-8f72-e5640ed6f2aa",
      "name": "vapor-pressure"
    }
  ],
  "tracking_summary": {
    "total": 17,
    "recent": 1
  },
  "groups": [

  ],
  "license_id": "other-license-specified",
  "relationships_as_subject": [

  ],
  "organization": {
    "description": "",
    "created": "2013-05-18T11:37:59.153068",
    "title": "Department of Commerce",
    "name": "doc-gov",
    "is_organization": true,
    "state": "active",
    "image_url": "http://www.vos.noaa.gov/MWL/aug_10/Images/doc_logo_xparent.png",
    "revision_id": "44c851b9-8872-497a-8a13-2f06740b7ffb",
    "type": "organization",
    "id": "9cda5205-d632-4814-96e7-a4ab5e0dce85",
    "approval_status": "approved"
  },
  "name": "nist-chemistry-webbook-srd-69",
  "isopen": true,
  "url": null,
  "notes": "The NIST Chemistry WebBook provides users with easy access to chemical and physical property data for chemical species through the internet. The data provided in the site are from collections maintained by the NIST Standard Reference Data Program and outside contributors. Data in the WebBook system are organized by chemical species. The WebBook system allows users to search for chemical species by various means. Once the desired species has been identified, the system will display data for the species.",
  "owner_org": "9cda5205-d632-4814-96e7-a4ab5e0dce85",
  "extras": [
    {
      "key": "publisher",
      "value": "National Institute of Standards and Technology"
    },
    {
      "key": "landingPage",
      "value": "http://webbook.nist.gov/chemistry"
    },
    {
      "key": "license",
      "value": "http://www.nist.gov/open/license.cfm"
    },
    {
      "key": "harvest_source_id",
      "value": "0836a94a-b3c8-4190-a145-bddc06458b2c"
    },
    {
      "key": "catalog_@context",
      "value": "https://project-open-data.cio.gov/v1.1/schema/catalog.jsonld"
    },
    {
      "key": "resource-type",
      "value": "Dataset"
    },
    {
      "key": "modified",
      "value": "2013-04-01"
    },
    {
      "key": "harvest_source_title",
      "value": "Commerce Non Spatial Data.json Harvest Source"
    },
    {
      "key": "source_schema_version",
      "value": "1.1"
    },
    {
      "key": "source_datajson_identifier",
      "value": true
    },
    {
      "key": "language",
      "value": [
        "en"
      ]
    },
    {
      "key": "theme",
      "value": [
        "Spectroscopy",
        "Chemical thermodynamics & chemical properties",
        "Analytical chemistry",
        "Chemical engineering & processing",
        "Thermochemical properties",
        "Reference data"
      ]
    },
    {
      "key": "bureauCode",
      "value": [
        "006:55"
      ]
    },
    {
      "key": "references",
      "value": [
        "http://dx.doi.org/10.1021/je000236i"
      ]
    },
    {
      "key": "programCode",
      "value": [
        "006:052"
      ]
    },
    {
      "key": "identifier",
      "value": "EBC9DB05EDEE5B0EE043065706812DF85"
    },
    {
      "key": "accessLevel",
      "value": "public"
    },
    {
      "key": "harvest_object_id",
      "value": "368b88b0-c23b-4c52-ba54-ee13c4d3b3b2"
    },
    {
      "key": "source_hash",
      "value": "395e9b68d7536cd94ea0ebe48124330dfef94da7"
    },
    {
      "key": "catalog_conformsTo",
      "value": "https://project-open-data.cio.gov/v1.1/schema"
    },
    {
      "key": "catalog_describedBy",
      "value": "https://project-open-data.cio.gov/v1.1/schema/catalog.json"
    },
    {
      "key": "harvest_object_id",
      "value": "368b88b0-c23b-4c52-ba54-ee13c4d3b3b2"
    },
    {
      "key": "harvest_source_id",
      "value": "0836a94a-b3c8-4190-a145-bddc06458b2c"
    },
    {
      "key": "harvest_source_title",
      "value": "Commerce Non Spatial Data.json Harvest Source"
    }
  ],
  "title": "NIST Chemistry WebBook - SRD 69",
  "revision_id": "da2e7052-5170-41e6-85c0-a8f5959e6ab9"
}